34
5a_E_s-cis_step14
N        1.4955261        0.5205331        0.3284210
C        2.8804771        0.9927671        0.0628950
H        2.8662871        1.8135981       -0.6707950
H        3.3384651        1.3707791        0.9839540
C        1.2426701       -0.7365969       -0.4123200
H        0.3222071       -0.6802559       -0.9965270
C        3.5975061       -0.2293069       -0.5157340
H        4.4585981        0.0517141       -1.1297240
H        3.9569911       -0.8854919        0.2865860
C        2.4818271       -0.9175219       -1.3168390
H        2.6721921       -1.9702169       -1.5394880
H        2.3167041       -0.3920959       -2.2652370
C        1.0965641       -1.9370419        0.5482410
O        1.2701541       -1.6419569        1.8519080
H        1.4317291       -0.6687189        1.8790290
O        0.8767021       -3.0614179        0.1611750
C       -0.8151519        1.5440221        0.3867710
C        0.5334281        1.5412811        0.4654790
H        1.0106091        2.4896351        0.7067520
C       -1.7050339        0.3681731        0.1342810
C       -2.4250899        0.2669851       -1.0701220
C       -1.9145459       -0.6120279        1.1179780
C       -3.3025699       -0.7953739       -1.2949270
H       -2.2842549        1.0220861       -1.8406430
C       -2.7913609       -1.6776979        0.8939860
H       -1.3852659       -0.5417079        2.0643330
C       -3.4862799       -1.7745069       -0.3131240
H       -3.8395029       -0.8613279       -2.2381870
H       -2.9240709       -2.4340799        1.6631130
H       -4.1638579       -2.6058469       -0.4892790
C       -1.5506259        2.8551981        0.5985530
H       -2.1582689        3.1176681       -0.2779080
H       -2.2431859        2.7843831        1.4486750
H       -0.8595729        3.6843671        0.7887230
